<?xml version="1.0"?>
<VTKFile type="UnstructuredGrid" version="0.1">
<UnstructuredGrid>
<Piece NumberOfPoints="2962" NumberOfCells="14488">
<PointData>
<DataArray type="Float32" Name="p_p1">
0.000
0.238
0.477
0.385
0.598
0.805
1.369
0.279
0.503
0.739
0.940
1.153
1.526
1.615
-0.314
0.371
1.088
1.465
-0.199
0.664
0.886
1.246
-0.310
-0.204
1.025
0.172
0.616
1.121
1.331
-0.179
-0.023
-0.164
0.416
0.881
1.327
1.511
1.613
0.213
0.560
0.652
1.099
1.225
1.351
0.157
0.338
0.545
0.733
1.615
0.164
1.192
1.619
-0.395
-0.397
-0.161
0.102
0.597
0.779
-0.314
-0.025
0.287
0.422
0.467
0.733
0.927
1.701
0.188
0.371
0.622
0.777
1.047
-0.315
0.049
0.317
0.505
0.774
0.908
0.009
0.214
0.388
0.781
1.127
0.596
0.925
1.019
-0.048
0.513
0.725
0.922
-0.215
0.042
0.450
0.638
0.940
1.314
1.605
-0.387
0.248
0.687
0.815
1.709
0.301
0.389
0.543
0.879
0.971
1.530
0.200
0.309
0.899
1.014
1.351
-0.380
0.082
0.136
0.430
0.586
0.747
1.034
1.244
1.501
-0.249
-0.053
0.323
0.571
0.726
0.892
0.943
-0.192
0.170
0.654
0.824
1.617
0.021
0.230
0.415
0.605
0.773
1.111
-0.027
0.152
0.673
0.894
-0.315
0.202
0.939
1.105
1.486
-0.184
0.341
0.505
0.152
0.435
0.486
0.793
1.084
1.382
0.225
0.331
1.000
1.241
0.101
0.277
1.155
-0.481
0.236
0.306
1.011
1.681
0.382
0.478
0.815
0.976
1.177
1.323
1.695
0.490
0.638
0.832
0.993
1.165
0.296
0.499
0.667
1.480
-0.310
0.515
0.758
0.943
-0.032
0.341
0.827
-0.310
-0.197
1.046
1.273
0.027
0.667
0.620
0.805
0.998
1.614
-0.202
0.285
0.916
1.143
1.780
-0.018
1.087
1.144
-0.055
0.279
1.050
1.202
1.323
-0.284
0.276
1.084
-0.395
-0.108
0.102
0.257
0.368
0.885
-0.251
0.155
0.361
0.532
0.715
0.827
0.997
1.537
-0.161
0.058
0.909
1.101
1.290
1.510
1.623
-0.179
0.673
-0.315
-0.207
0.329
1.351
1.495
-0.311
0.133
0.517
0.691
1.259
0.209
0.377
0.556
0.896
1.055
1.692
-0.381
0.294
0.562
0.763
1.027
1.515
-0.020
0.149
0.223
0.397
1.005
1.367
1.782
-0.479
-0.274
0.216
1.087
1.559
0.171
0.300
1.020
1.045
1.354
1.544
1.713
-0.399
-0.014
0.316
0.417
0.572
0.758
0.930
-0.320
-0.191
-0.024
0.040
0.339
0.516
0.691
0.971
1.170
1.531
0.225
0.653
0.831
1.482
1.610
0.441
0.302
0.489
0.925
1.143
1.192
1.530
0.237
0.395
0.574
0.767
-0.204
0.034
0.416
0.520
0.691
0.861
0.933
0.978
1.128
1.685
-0.397
0.372
0.535
0.707
1.007
1.210
0.165
0.401
1.003
1.062
1.544
-0.197
0.123
0.263
0.464
0.756
0.931
1.038
1.160
0.253
0.451
0.656
0.836
0.972
0.632
-0.315
-0.205
-0.008
0.377
0.592
1.075
1.295
-0.062
0.655
0.825
1.011
-0.314
0.139
0.315
0.475
0.665
0.855
1.053
1.381
-0.212
0.443
0.596
0.756
0.789
1.340
1.615
0.293
0.641
0.892
1.020
0.582
1.174
1.363
1.696
0.153
0.375
0.554
0.689
0.864
1.166
1.318
1.539
1.103
1.236
-0.054
0.145
0.533
0.837
0.979
1.474
-0.321
0.169
1.621
1.500
1.608
0.493
0.690
1.271
-0.023
0.166
0.534
0.732
0.888
1.089
1.317
-0.321
-0.183
0.311
0.500
0.833
0.980
1.142
1.613
0.261
0.463
0.663
0.759
0.866
1.310
0.003
1.101
-0.202
0.343
0.742
0.392
0.323
1.481
1.621
0.594
0.932
1.496
-0.310
0.786
1.467
0.120
-0.103
-0.106
0.087
-0.010
0.084
-0.076
0.053
-0.022
0.024
0.356
0.310
0.304
0.205
0.200
0.170
0.264
0.330
0.244
0.430
0.537
0.422
0.570
0.546
0.511
0.537
0.382
0.452
0.475
0.489
0.332
0.443
0.276
0.337
0.406
0.428
0.379
0.702
0.550
0.668
0.631
0.607
0.536
0.610
0.685
0.772
0.874
0.735
0.846
0.918
0.713
0.791
0.865
0.790
1.262
1.451
1.417
1.308
1.350
1.348
1.444
1.306
1.432
0.388
0.225
0.347
0.246
0.285
0.235
0.326
0.163
0.299
0.620
0.459
0.577
0.488
0.437
0.562
0.505
0.842
0.811
0.696
0.682
0.757
0.755
1.049
0.983
0.911
1.020
0.932
0.859
0.992
0.918
1.199
1.089
1.136
1.240
1.126
1.098
1.197
1.586
1.498
1.434
1.520
1.582
1.606
1.527
1.516
1.575
1.612
1.610
1.649
1.584
1.645
-0.273
-0.317
-0.274
-0.346
-0.350
-0.266
-0.309
0.355
0.456
0.266
0.399
0.412
0.310
0.990
1.167
1.057
1.103
1.140
1.006
1.203
1.028
1.097
1.042
1.357
1.398
1.558
1.558
1.390
1.496
1.476
-0.204
-0.288
-0.184
-0.127
-0.208
-0.272
-0.192
0.777
0.641
0.605
0.700
0.632
0.720
0.957
0.811
0.832
0.905
0.905
0.850
0.927
1.137
1.182
1.287
1.219
1.281
1.244
-0.281
-0.271
-0.337
-0.315
-0.193
-0.118
-0.297
-0.182
1.072
0.975
1.035
0.996
0.073
0.137
0.072
0.231
0.181
0.110
0.607
0.699
0.516
0.541
0.669
0.619
0.698
0.584
0.603
1.226
1.157
1.026
1.084
1.047
1.062
1.183
1.102
1.183
1.139
1.262
1.321
1.433
1.342
1.288
1.418
1.359
1.286
1.242
1.440
-0.103
-0.174
-0.289
-0.169
-0.261
-0.105
-0.069
-0.207
-0.090
0.040
-0.023
0.012
-0.256
-0.098
-0.257
-0.062
-0.081
-0.279
-0.203
-0.112
-0.179
0.312
0.487
0.532
0.394
0.367
0.461
0.401
0.454
0.769
0.992
0.829
0.964
0.827
0.890
0.832
0.952
0.911
1.424
1.215
1.276
1.227
1.285
1.412
1.324
1.406
1.579
1.505
1.595
1.502
1.621
1.637
1.568
0.202
0.131
0.266
0.110
0.213
0.298
0.175
0.605
0.534
0.473
0.670
0.577
0.606
0.527
0.637
0.580
0.711
0.716
0.653
1.162
1.071
1.112
1.059
1.171
1.020
1.290
1.174
1.124
1.169
1.272
1.194
1.356
1.235
1.337
1.260
1.416
1.439
1.321
1.432
1.352
0.247
0.160
0.053
0.100
0.203
0.064
0.154
0.180
0.248
0.092
0.439
0.250
0.425
0.395
0.294
0.270
0.342
0.339
0.640
0.572
0.486
0.529
0.635
0.499
0.591
0.667
0.754
0.729
0.829
0.687
0.772
1.627
1.644
1.608
1.652
1.593
1.575
0.133
0.057
0.104
0.207
1.253
1.083
1.148
1.136
1.288
1.217
1.232
1.096
1.168
1.647
1.591
-0.410
-0.296
-0.397
-0.350
-0.307
-0.470
-0.378
-0.448
-0.294
-0.347
-0.398
-0.345
-0.457
-0.377
-0.030
-0.094
-0.104
-0.060
-0.204
-0.174
-0.091
-0.224
-0.140
0.038
0.193
0.145
0.071
0.174
0.153
0.092
0.127
0.042
0.689
0.508
0.658
0.521
0.617
0.639
0.708
0.575
0.549
0.755
0.855
0.779
0.736
0.798
0.822
0.879
-0.329
-0.345
-0.304
0.081
0.013
-0.007
0.028
0.054
-0.136
-0.040
-0.023
-0.067
0.353
0.374
0.237
0.328
0.266
0.297
0.348
0.242
0.301
0.443
0.435
0.333
0.361
0.413
0.481
0.456
0.418
0.544
0.485
0.436
0.505
0.387
0.455
0.523
0.836
0.756
0.709
0.637
0.808
0.819
0.661
0.745
0.855
0.988
0.919
0.899
0.950
0.903
0.968
1.723
1.632
1.625
1.692
1.752
1.666
0.277
0.120
0.252
0.195
0.253
0.134
0.161
0.213
0.343
0.436
0.342
0.410
0.379
0.700
0.563
0.699
0.607
0.678
0.598
0.638
0.777
0.843
0.826
0.691
0.762
0.977
1.087
1.027
1.039
1.146
0.997
1.103
-0.341
-0.307
-0.274
-0.316
0.028
0.093
0.408
0.267
0.353
0.314
0.225
0.319
0.276
0.353
0.401
0.477
0.544
0.537
0.579
0.448
0.497
0.842
0.776
0.760
0.751
0.826
0.861
0.714
0.800
0.899
0.963
0.835
0.975
0.901
0.926
0.952
0.110
0.072
-0.021
-0.095
0.014
0.300
0.175
0.270
0.193
0.117
0.222
0.312
0.490
0.357
0.401
0.439
0.688
0.854
0.903
0.862
0.718
0.800
0.777
0.724
1.072
1.077
1.186
1.036
1.118
1.142
1.153
1.226
1.061
1.147
0.624
0.504
0.601
0.684
0.545
0.550
0.631
0.972
0.933
0.873
0.851
1.019
0.878
0.957
0.934
0.980
1.065
1.004
-0.136
-0.003
-0.037
-0.114
0.619
0.483
0.575
0.593
0.428
0.510
0.425
0.515
0.826
0.682
0.768
0.699
0.811
0.763
0.868
0.945
0.908
1.015
0.959
-0.294
-0.126
-0.278
-0.202
-0.278
-0.207
0.144
0.008
0.122
-0.071
0.099
0.034
0.012
0.542
0.346
0.376
0.395
0.476
0.446
0.472
0.661
0.727
0.656
0.571
0.572
0.708
0.652
0.628
0.722
0.876
0.912
0.954
0.984
0.939
0.867
1.013
0.969
0.871
0.966
0.926
0.987
1.420
1.211
1.402
1.347
1.294
1.644
1.577
1.617
1.579
1.638
-0.344
-0.305
-0.337
-0.291
-0.323
-0.373
-0.342
-0.394
-0.445
0.278
0.223
0.224
0.294
0.200
0.755
0.615
0.784
0.586
0.741
0.652
0.841
0.896
0.853
0.802
0.811
0.910
1.632
1.594
1.564
1.757
1.601
1.706
1.638
1.762
1.668
0.345
0.249
0.301
0.321
0.227
0.385
0.260
0.321
0.293
0.289
0.462
0.347
0.404
0.431
0.351
0.322
0.481
0.561
0.511
0.921
0.895
0.953
0.844
0.948
0.991
1.029
0.986
1.520
1.506
1.460
1.546
0.253
0.141
0.176
0.211
0.148
0.251
0.215
0.093
0.207
0.365
0.297
0.271
0.310
0.342
0.254
0.960
0.826
0.905
0.967
0.962
1.027
1.049
1.002
1.084
1.008
1.055
1.057
1.298
1.429
1.297
1.252
1.264
1.337
1.276
1.338
1.448
1.361
1.454
1.354
1.449
-0.334
-0.288
-0.444
-0.340
-0.397
-0.345
0.109
0.015
0.114
0.092
0.160
0.031
-0.011
0.092
0.154
0.041
0.227
0.153
0.079
0.189
0.119
0.508
0.504
0.333
0.349
0.403
0.668
0.575
0.656
0.738
0.824
0.696
0.966
0.988
1.095
1.014
1.007
1.106
1.014
1.062
1.373
1.198
1.284
1.615
1.413
1.489
1.524
1.654
1.532
-0.151
-0.215
-0.375
-0.271
-0.183
-0.253
-0.125
0.058
-0.015
-0.080
0.025
-0.151
-0.107
-0.039
0.245
0.278
0.370
0.278
0.355
0.399
0.404
0.408
0.289
0.350
0.341
0.647
0.615
0.477
0.529
0.529
0.602
0.622
0.809
0.686
0.777
0.774
0.682
0.693
0.911
0.852
0.961
0.854
0.936
0.940
0.885
0.969
-0.091
-0.271
-0.214
-0.176
0.096
0.201
0.205
0.233
0.135
0.217
0.162
0.264
0.116
0.072
0.740
0.571
0.661
0.797
0.819
0.897
0.828
0.909
0.746
1.651
1.649
1.566
1.595
1.579
1.613
0.124
-0.072
0.039
-0.001
0.321
0.262
0.296
0.144
0.509
0.454
0.354
0.458
0.465
0.389
0.689
0.554
0.635
0.560
0.681
0.629
0.801
0.721
0.766
0.861
1.050
1.138
1.027
1.053
1.106
1.203
0.062
0.088
-0.103
-0.030
-0.115
0.000
0.178
0.059
0.246
0.090
0.240
0.142
0.182
0.227
0.785
0.590
0.751
0.670
0.737
0.594
0.682
0.914
1.002
0.861
0.971
0.848
0.945
-0.272
-0.309
0.271
0.177
0.272
0.115
0.247
0.265
0.205
0.288
0.175
0.881
0.991
0.873
0.969
0.917
1.044
0.918
0.998
0.853
0.983
0.930
0.855
1.076
1.190
1.051
1.124
1.434
1.383
1.491
-0.188
-0.080
-0.193
-0.104
-0.123
-0.232
0.420
0.243
0.391
0.412
0.350
0.344
0.313
0.358
0.476
0.502
0.422
0.585
0.557
0.512
0.440
0.530
0.533
0.192
0.124
0.092
0.218
0.067
0.150
0.459
0.375
0.529
0.355
0.410
0.501
0.499
0.411
0.401
0.554
0.908
0.709
0.797
0.850
0.782
1.029
1.163
1.122
1.042
1.113
1.086
1.117
1.057
1.312
1.327
1.263
1.365
1.439
1.321
1.558
1.449
1.377
1.467
0.277
0.165
0.255
0.252
0.254
0.253
0.189
0.221
0.216
0.297
0.312
0.296
0.347
1.014
0.976
1.040
1.034
1.009
1.010
1.199
1.192
1.159
1.193
1.224
1.250
1.304
1.393
0.041
0.024
-0.001
0.100
0.124
0.165
0.160
0.133
0.043
0.111
0.286
0.264
0.261
0.247
1.167
1.239
1.121
1.181
1.118
-0.410
-0.448
-0.296
-0.374
-0.494
-0.405
-0.456
0.282
0.306
0.168
0.244
0.297
0.225
0.341
0.374
0.281
0.287
0.328
0.262
1.007
1.047
1.039
1.046
1.035
1.701
1.581
1.634
1.741
0.426
0.440
0.371
0.488
0.555
0.491
0.419
0.505
0.896
0.728
0.822
0.735
0.851
0.769
0.821
0.727
1.072
0.897
0.978
1.035
0.936
0.977
1.006
1.011
1.250
1.088
1.171
1.191
1.250
1.127
1.090
1.112
1.265
1.173
1.170
1.245
1.403
1.429
1.339
1.642
1.596
1.648
1.750
1.667
1.716
1.625
1.575
1.642
0.559
0.493
0.578
0.743
0.564
0.653
0.584
0.677
0.646
0.914
0.751
0.794
0.887
0.851
0.777
0.830
0.917
0.870
0.744
1.080
0.967
0.996
1.020
1.082
1.133
1.228
1.260
1.168
0.403
0.226
0.329
0.176
0.319
0.260
0.368
0.583
0.509
0.439
0.429
0.517
0.506
0.576
0.713
0.660
1.505
1.498
-0.349
-0.300
-0.259
-0.318
0.636
0.439
0.594
0.517
0.583
0.478
0.853
0.791
0.834
0.716
0.706
0.968
0.927
1.023
-0.117
-0.003
-0.113
-0.123
0.050
0.088
0.001
-0.047
0.335
0.427
0.361
0.939
0.749
0.814
0.761
0.877
0.796
-0.273
-0.316
-0.090
-0.197
-0.275
-0.203
1.161
1.021
1.094
1.050
0.986
1.095
1.208
1.313
1.389
1.265
1.208
-0.088
0.003
-0.014
0.118
0.090
0.030
0.645
0.737
0.591
0.679
0.611
0.622
0.708
0.718
0.719
0.594
0.690
0.905
0.848
0.783
0.786
1.072
1.012
1.581
1.638
1.592
1.619
-0.131
-0.246
-0.286
-0.204
-0.322
-0.350
-0.244
-0.206
-0.084
-0.129
0.289
0.250
0.331
0.288
0.217
0.338
0.902
0.842
0.971
0.964
0.897
0.964
1.144
1.201
1.100
1.082
1.142
1.747
1.661
1.792
1.699
1.693
1.772
1.741
1.675
1.754
-0.038
-0.146
-0.065
0.065
1.115
1.062
1.144
1.089
1.060
1.047
1.091
1.175
1.200
1.101
1.086
1.062
1.252
1.115
1.136
1.076
1.178
1.105
-0.168
-0.084
-0.039
0.049
-0.164
-0.036
-0.134
-0.010
0.035
0.263
0.293
0.253
0.330
0.243
0.280
0.320
0.294
1.061
1.037
1.062
1.041
1.037
1.262
1.141
1.283
1.142
1.207
1.183
1.346
1.340
1.432
1.247
1.431
1.268
1.241
1.344
1.245
1.321
1.437
-0.195
-0.410
-0.286
0.275
0.310
0.249
0.250
0.238
0.274
0.295
0.332
1.089
1.048
1.067
1.120
-0.342
-0.282
-0.372
-0.414
-0.348
-0.312
-0.344
-0.001
-0.185
-0.191
-0.062
-0.155
-0.066
0.179
0.127
0.162
0.135
0.043
0.039
0.311
0.209
0.309
0.232
0.214
0.283
0.328
0.297
0.254
0.370
0.450
0.389
0.356
0.447
0.804
0.850
0.936
0.966
0.970
0.822
0.909
0.923
-0.199
-0.213
-0.270
-0.300
-0.223
-0.137
0.256
0.108
0.163
0.070
0.065
0.098
0.245
0.190
0.203
0.074
0.163
0.444
0.350
0.437
0.293
0.403
0.620
0.472
0.549
0.524
0.599
0.773
0.645
0.740
0.606
0.701
0.681
0.915
0.867
0.748
0.795
0.878
0.760
0.899
0.741
0.827
0.834
0.952
1.047
1.020
0.984
1.085
1.522
1.674
1.559
1.445
1.547
1.536
-0.054
-0.171
-0.257
-0.093
-0.065
0.018
0.141
0.025
1.006
0.794
0.939
0.870
0.993
1.197
1.035
1.135
1.089
1.199
1.404
1.321
1.230
1.388
1.293
1.584
1.435
1.516
1.496
1.587
1.564
1.616
-0.267
-0.181
-0.104
-0.266
-0.194
-0.097
0.597
0.682
0.663
0.753
0.556
0.632
-0.277
-0.318
-0.347
-0.282
-0.292
-0.204
-0.137
-0.210
0.421
0.269
0.355
0.316
0.407
0.364
1.426
1.304
1.429
1.248
1.273
1.446
1.366
1.595
1.505
1.515
-0.332
-0.312
-0.282
0.172
0.217
0.187
0.084
0.034
0.135
0.223
0.603
0.448
0.537
0.503
0.625
0.589
0.811
0.727
0.672
0.759
1.158
1.387
1.313
1.200
1.226
1.194
1.236
1.320
1.300
0.291
0.255
0.179
0.256
0.222
0.300
0.121
0.464
0.334
0.395
0.435
0.385
0.562
0.486
0.523
0.472
0.564
0.662
0.539
0.616
0.607
0.977
0.835
0.967
0.942
0.907
0.832
0.805
0.878
0.914
0.953
0.857
0.829
1.039
0.990
1.098
1.123
0.996
1.092
1.027
1.032
1.625
1.666
1.609
1.700
1.644
-0.439
-0.320
-0.392
-0.344
-0.293
0.221
0.254
0.345
0.269
0.344
0.353
0.335
0.291
0.665
0.476
0.471
0.568
0.676
0.538
0.626
0.762
0.729
0.819
1.010
1.020
1.445
1.541
1.520
1.624
1.538
1.444
1.428
1.505
-0.141
-0.018
0.008
-0.114
0.006
0.071
-0.109
0.051
0.065
-0.021
0.072
-0.105
-0.008
0.188
0.192
0.093
0.135
0.218
0.216
0.197
0.265
0.259
0.290
0.178
0.241
0.257
0.403
0.411
0.454
0.379
1.046
0.942
1.002
1.012
0.965
1.463
1.457
1.288
1.458
1.353
1.366
1.699
1.696
1.764
-0.407
-0.461
-0.351
-0.452
-0.374
-0.139
-0.233
-0.239
-0.373
-0.237
0.193
1.051
1.073
1.052
1.144
1.043
1.075
1.066
1.122
1.558
1.561
0.079
0.243
0.107
0.145
0.215
0.211
0.162
0.305
0.328
0.344
0.293
0.369
0.304
1.024
0.983
1.021
1.022
0.992
1.006
1.104
1.045
1.103
1.072
1.448
1.262
1.443
1.419
1.323
1.338
1.674
1.540
1.550
1.452
1.667
1.428
1.546
1.640
1.651
1.720
1.645
1.656
1.655
-0.313
-0.414
-0.315
-0.354
-0.293
-0.349
-0.343
-0.105
-0.019
0.013
-0.108
0.054
0.068
0.367
0.332
0.353
0.287
0.389
0.291
0.387
0.349
0.493
0.383
0.473
0.445
0.440
0.668
0.544
0.639
0.517
0.509
0.613
0.607
0.565
0.845
0.722
0.708
0.795
0.690
0.797
0.758
0.947
0.982
0.989
0.886
0.947
1.013
0.879
0.840
-0.318
-0.107
-0.076
-0.196
-0.278
-0.199
-0.097
-0.119
0.007
-0.015
-0.079
0.146
0.017
0.097
-0.007
0.093
0.105
0.022
0.426
0.282
0.392
0.295
0.393
0.360
0.254
0.602
0.585
0.480
0.483
0.572
0.446
0.555
0.673
0.762
0.661
0.640
0.766
0.716
1.073
0.900
0.973
1.022
1.038
0.906
0.973
1.165
1.122
1.232
1.245
1.138
1.203
1.503
1.591
1.408
1.425
1.537
1.498
1.593
0.330
0.239
0.106
0.299
0.197
0.712
0.956
0.833
0.905
0.787
1.568
1.389
1.478
1.565
1.617
0.409
0.516
0.393
0.271
0.350
0.308
0.387
0.444
0.531
0.572
0.482
1.037
0.846
0.929
0.875
0.968
1.168
1.077
1.264
1.159
1.103
1.123
1.288
1.266
1.231
1.607
1.461
1.522
1.589
0.314
0.135
0.325
0.200
0.178
0.189
0.277
0.336
0.266
0.281
0.482
0.404
0.456
0.357
0.437
0.671
0.493
0.551
0.628
0.616
0.524
0.621
0.585
0.665
0.731
0.710
0.795
0.762
-0.086
-0.324
-0.201
-0.131
-0.284
-0.209
-0.111
-0.192
0.099
0.078
-0.014
0.086
0.006
0.468
0.405
0.471
0.368
0.448
0.428
0.505
0.352
0.457
0.371
0.605
0.444
0.524
0.614
0.564
0.782
0.702
0.639
0.726
0.892
0.786
0.940
0.804
0.823
0.877
0.957
1.033
0.968
0.878
0.971
0.893
0.992
0.847
0.864
0.908
1.054
0.991
1.021
0.952
0.916
1.014
0.887
0.931
1.000
1.077
0.931
1.032
0.907
0.953
1.063
1.170
1.093
1.069
1.090
1.234
1.151
1.198
1.638
1.643
1.696
1.592
1.639
-0.314
-0.352
-0.345
-0.289
-0.342
0.451
0.383
0.421
0.336
0.621
0.467
0.647
0.490
0.569
0.594
0.562
0.521
0.731
0.647
0.733
0.750
0.671
0.800
1.002
1.036
0.955
1.136
1.124
1.187
1.275
1.192
1.287
1.189
0.144
0.215
0.153
0.231
0.158
0.071
0.166
0.237
0.244
0.330
0.429
0.428
0.345
0.494
0.392
0.485
0.362
0.457
1.022
0.897
0.967
1.014
0.940
0.954
1.000
1.052
1.114
0.981
1.040
1.115
1.112
1.441
1.604
1.454
1.642
1.546
1.516
1.506
1.606
1.516
-0.202
-0.123
-0.274
-0.278
-0.187
-0.094
-0.200
-0.276
0.192
0.207
0.137
0.259
0.276
0.210
0.318
0.288
0.461
0.556
0.556
0.522
0.421
0.515
0.487
0.849
0.710
0.793
0.773
0.695
0.829
0.669
0.720
0.812
0.795
0.988
0.889
0.949
0.914
0.972
0.894
0.879
1.099
0.951
1.005
1.027
1.099
1.068
1.163
1.239
1.132
0.349
0.316
0.202
0.312
0.200
0.212
0.258
0.299
0.540
0.416
0.523
0.412
0.501
0.494
0.399
0.747
0.643
0.619
0.602
0.674
0.710
0.904
0.755
0.847
0.791
0.997
0.919
1.071
1.038
0.907
0.973
0.974
0.869
0.917
1.035
0.612
0.593
0.582
0.737
0.648
0.696
0.688
-0.276
-0.319
-0.111
-0.132
-0.276
-0.204
-0.031
0.080
0.483
0.454
0.271
0.360
0.562
0.667
1.187
1.088
1.156
1.027
1.306
1.266
1.386
0.037
-0.140
-0.043
0.741
0.565
0.660
0.704
0.920
0.746
0.840
0.790
0.935
1.032
-0.279
-0.309
-0.267
0.226
0.057
0.152
0.230
0.394
0.402
0.318
0.569
0.535
0.484
0.761
0.631
0.709
0.725
0.578
0.678
0.956
0.805
0.821
0.774
0.871
1.114
1.162
0.972
1.071
1.360
1.443
1.328
-0.122
-0.199
0.518
0.367
0.540
0.470
0.490
0.376
0.471
0.420
0.384
0.676
0.693
0.618
0.544
0.644
0.565
0.772
0.824
0.717
0.837
0.739
0.838
0.812
1.258
1.353
1.422
1.305
1.328
1.411
1.649
1.573
1.618
1.567
1.622
0.303
0.314
0.614
0.666
0.666
0.587
0.687
0.570
0.739
0.618
0.858
1.098
0.944
1.094
1.053
0.930
0.998
1.080
0.975
0.567
0.639
0.540
1.269
1.170
1.222
1.131
1.246
1.158
1.265
1.342
1.453
1.339
1.253
1.335
1.424
1.433
1.633
1.653
1.647
1.594
0.262
0.150
0.160
0.231
0.208
0.079
0.463
0.455
0.342
0.436
0.320
0.421
0.362
0.385
0.622
0.544
0.527
0.509
0.610
0.657
0.575
0.779
0.710
0.594
0.763
0.675
0.725
0.641
0.738
0.849
0.921
0.813
0.863
0.897
0.823
1.243
1.135
1.200
1.073
1.153
1.237
1.133
1.430
1.212
1.277
1.397
1.313
1.394
1.503
1.598
1.596
1.422
1.518
1.498
1.169
1.040
1.101
1.110
1.359
1.274
1.168
1.355
0.045
0.057
-0.026
-0.131
0.156
0.202
0.075
0.242
0.498
0.598
0.436
0.637
0.908
0.799
0.850
0.788
0.923
1.041
0.863
1.563
1.470
-0.269
-0.322
0.254
1.618
1.564
1.576
1.389
1.491
0.591
0.513
0.406
0.612
0.711
0.791
0.760
1.180
1.294
1.378
0.070
-0.106
-0.011
0.239
0.213
0.084
0.276
0.244
0.632
0.519
0.462
0.425
0.564
0.811
0.780
0.663
0.834
0.759
0.990
0.859
0.910
1.204
1.116
1.011
1.230
1.314
1.400
1.411
-0.272
-0.270
-0.323
-0.094
-0.192
0.403
0.288
0.353
0.318
0.482
0.447
0.549
0.881
0.807
1.062
0.925
1.040
0.957
0.886
1.227
1.122
1.039
1.621
1.575
1.562
0.360
0.130
0.302
0.325
0.562
0.402
0.427
0.527
0.709
0.766
0.702
0.628
0.724
0.812
0.749
0.771
0.987
0.805
0.826
1.207
1.407
1.389
-0.103
-0.265
0.356
0.491
1.568
1.488
1.572
0.690
0.860
1.484
</DataArray>
<DataArray type="Float32" Name="u_p1" NumberOfComponents="3">
-0.025
-0.000
-0.001
-0.026
0.000
0.001
-0.029
0.000
0.000
-0.028
-0.000
0.001
-0.030
-0.000
0.000
-0.029
-0.000
-0.000
-0.024
-0.000
-0.001
-0.027
-0.000
0.001
-0.029
-0.000
0.000
-0.030
0.000
-0.000
-0.028
-0.000
-0.001
-0.026
-0.000
-0.001
-0.021
-0.002
-0.002
-0.009
0.002
-0.006
-0.010
0.003
0.005
-0.027
0.001
0.000
-0.026
-0.000
-0.000
-0.023
-0.001
-0.001
-0.021
0.002
0.001
-0.030
0.000
-0.000
-0.029
-0.000
-0.001
-0.025
-0.000
-0.001
-0.007
0.000
0.007
-0.022
0.002
0.001
-0.027
-0.000
-0.001
-0.026
0.000
0.000
-0.032
0.000
0.001
-0.025
-0.001
-0.002
-0.026
-0.001
-0.001
-0.023
-0.001
0.001
-0.025
-0.000
0.000
-0.022
-0.002
0.002
-0.028
-0.000
0.001
-0.028
0.000
-0.001
-0.025
0.000
-0.000
-0.020
-0.001
-0.003
-0.008
0.003
-0.007
-0.026
-0.000
0.000
-0.029
-0.000
0.000
-0.030
0.000
0.000
-0.026
0.000
-0.000
-0.025
-0.000
-0.000
-0.023
0.001
-0.000
-0.026
0.000
0.000
-0.027
0.001
0.000
-0.030
0.000
0.000
-0.030
-0.000
0.000
-0.008
-0.006
-0.004
-0.025
0.000
0.000
-0.025
-0.001
-0.001
-0.012
0.001
-0.007
-0.049
0.010
0.009
-0.048
0.001
0.014
-0.027
0.000
0.003
-0.025
0.000
0.001
-0.032
0.001
0.001
-0.031
-0.001
-0.002
-0.010
0.000
0.008
-0.025
-0.000
0.001
-0.026
0.000
0.002
-0.028
0.002
0.003
-0.030
0.000
0.004
-0.037
-0.003
-0.005
-0.027
-0.001
-0.003
-0.048
-0.002
-0.014
-0.025
-0.000
0.002
-0.027
-0.001
0.003
-0.032
-0.000
0.001
-0.031
-0.000
-0.003
-0.026
0.000
-0.002
-0.011
-0.009
0.004
-0.025
-0.000
0.000
-0.027
-0.002
0.002
-0.030
-0.001
0.002
-0.031
0.001
-0.002
-0.028
0.001
-0.005
-0.025
-0.000
0.000
-0.026
-0.000
0.000
-0.028
-0.001
0.000
-0.030
0.000
-0.000
-0.025
0.001
-0.001
-0.030
-0.000
-0.000
-0.028
0.001
-0.000
-0.027
0.000
-0.001
-0.024
0.001
0.000
-0.030
0.001
0.000
-0.030
-0.000
-0.000
-0.028
-0.000
-0.000
-0.021
0.003
0.001
-0.025
0.001
0.000
-0.029
0.002
0.002
-0.032
0.000
0.000
-0.026
-0.008
-0.005
-0.025
-0.000
-0.000
-0.005
-0.007
-0.004
-0.045
0.014
0.002
-0.026
0.001
0.001
-0.037
-0.001
-0.001
-0.030
-0.002
-0.002
-0.052
-0.012
-0.005
-0.023
0.004
0.005
-0.026
0.004
0.014
-0.037
0.003
0.008
-0.030
-0.007
-0.011
-0.027
-0.002
-0.002
-0.027
-0.002
-0.003
-0.023
0.001
0.003
-0.023
-0.001
0.007
-0.029
0.001
-0.016
-0.022
-0.001
-0.007
-0.027
0.000
-0.001
-0.042
-0.009
0.011
-0.024
-0.001
0.001
-0.025
-0.001
0.001
-0.033
-0.003
0.014
-0.038
-0.001
0.004
-0.038
0.002
-0.006
-0.022
0.003
-0.004
-0.025
0.000
-0.001
-0.030
0.001
-0.003
-0.030
-0.002
0.004
-0.025
-0.001
0.001
-0.027
-0.003
0.001
-0.034
-0.003
0.002
-0.036
0.003
-0.003
-0.029
0.009
-0.008
-0.027
0.002
-0.002
-0.022
-0.001
0.000
-0.025
-0.001
0.000
-0.031
0.000
-0.000
-0.030
0.002
-0.002
-0.010
0.007
-0.002
-0.025
-0.000
0.000
-0.026
-0.000
0.000
-0.028
-0.001
0.000
-0.030
-0.000
-0.000
-0.030
0.000
-0.000
-0.026
0.001
-0.000
-0.025
0.000
0.000
-0.026
0.000
0.000
-0.030
0.000
0.000
-0.028
-0.001
-0.000
-0.010
0.005
0.003
-0.025
0.002
0.000
-0.027
-0.003
-0.000
-0.026
-0.001
-0.000
-0.024
-0.001
-0.001
-0.027
0.002
0.001
-0.027
0.003
0.001
-0.030
0.003
0.000
-0.024
0.002
0.001
-0.031
0.011
0.003
-0.034
0.009
0.007
-0.034
-0.007
-0.004
-0.024
-0.003
-0.002
-0.026
-0.002
-0.000
-0.018
0.003
0.002
-0.017
0.010
0.009
-0.014
-0.008
-0.008
-0.024
-0.001
-0.000
-0.023
0.000
0.000
-0.011
0.002
0.010
-0.024
0.000
-0.002
-0.071
-0.006
0.003
-0.023
-0.003
0.003
-0.012
-0.007
0.008
-0.013
0.002
-0.014
-0.043
0.005
-0.012
-0.028
-0.007
0.007
-0.035
-0.008
0.005
-0.033
0.007
-0.002
-0.023
0.011
-0.004
-0.024
0.001
-0.001
-0.025
0.001
-0.001
-0.046
0.014
0.000
-0.030
-0.002
0.002
-0.038
-0.001
-0.000
-0.029
0.003
-0.001
-0.026
0.003
-0.002
-0.025
0.001
-0.000
-0.027
-0.001
-0.001
-0.030
-0.003
0.001
-0.031
0.000
-0.000
-0.023
0.001
-0.000
-0.009
-0.007
0.003
-0.029
-0.001
0.000
-0.030
0.001
-0.000
-0.027
0.001
-0.000
-0.024
0.000
-0.000
-0.027
0.001
-0.000
-0.029
-0.000
-0.000
-0.007
0.008
0.002
-0.023
0.001
-0.000
-0.026
-0.001
-0.000
-0.025
-0.001
-0.000
-0.026
0.001
0.000
-0.032
-0.000
-0.000
-0.037
0.000
-0.001
-0.030
-0.003
-0.001
-0.026
-0.002
-0.001
-0.006
-0.008
0.001
-0.031
0.003
-0.001
-0.023
0.005
0.000
-0.026
-0.015
-0.002
-0.025
-0.001
-0.000
-0.067
-0.004
0.004
-0.026
0.001
0.001
-0.019
-0.002
-0.002
-0.023
-0.002
0.001
-0.027
0.001
-0.000
-0.011
0.009
-0.005
-0.007
0.000
-0.000
-0.023
0.000
0.001
-0.026
0.001
0.001
-0.039
0.002
0.002
-0.011
-0.007
-0.003
-0.019
0.003
-0.001
-0.048
-0.013
-0.003
-0.027
-0.001
0.001
-0.024
-0.001
0.001
-0.023
-0.005
-0.000
-0.027
-0.012
0.001
-0.030
0.012
0.003
-0.030
-0.006
0.001
-0.025
-0.001
-0.001
-0.028
-0.003
-0.000
-0.034
-0.006
0.001
-0.037
0.004
0.001
-0.030
0.003
0.001
-0.026
0.003
-0.000
-0.031
0.004
-0.002
-0.023
-0.001
0.000
-0.025
-0.001
-0.000
-0.028
0.001
0.000
-0.026
0.001
0.000
-0.025
0.001
-0.000
-0.022
0.002
-0.000
-0.011
0.006
0.003
-0.023
-0.001
-0.001
-0.030
0.000
0.000
-0.008
0.006
-0.000
-0.021
0.001
-0.000
-0.027
0.001
-0.000
-0.025
-0.001
0.000
-0.025
-0.001
-0.000
-0.006
0.003
-0.005
-0.026
0.000
-0.000
-0.030
0.001
-0.000
-0.031
-0.000
0.000
-0.025
-0.001
0.000
-0.025
0.002
-0.000
-0.028
0.004
-0.000
-0.031
0.002
-0.000
-0.028
-0.005
0.002
-0.026
-0.002
0.001
-0.044
-0.013
-0.001
-0.042
0.010
-0.010
-0.023
0.005
-0.003
-0.038
0.006
0.000
-0.037
-0.009
0.001
-0.023
-0.005
-0.000
-0.029
-0.004
0.001
-0.025
0.000
-0.001
-0.023
0.002
-0.000
-0.018
0.002
-0.004
-0.026
0.014
-0.005
-0.016
-0.011
0.004
-0.027
-0.001
0.001
-0.067
0.003
-0.005
-0.065
0.007
-0.004
-0.039
-0.001
-0.003
-0.018
-0.002
0.001
-0.018
-0.001
0.003
-0.037
-0.002
-0.002
-0.023
-0.002
-0.001
-0.013
0.000
-0.011
-0.010
0.008
0.005
-0.022
0.005
0.001
-0.025
0.001
-0.000
-0.039
0.002
0.001
-0.051
0.011
0.008
-0.050
-0.009
-0.010
-0.025
-0.001
-0.001
-0.024
-0.008
-0.007
-0.030
-0.010
-0.007
-0.038
-0.005
-0.003
-0.034
0.003
0.003
-0.028
0.008
0.008
-0.010
-0.007
0.002
-0.028
-0.003
-0.001
-0.025
-0.001
-0.000
-0.025
-0.001
-0.001
-0.027
-0.003
-0.001
-0.030
-0.002
-0.001
-0.032
0.001
0.000
-0.027
0.003
0.001
-0.025
0.001
0.000
-0.027
0.004
0.001
-0.026
-0.001
-0.000
-0.031
0.000
-0.000
-0.029
0.001
0.000
-0.022
0.002
-0.000
-0.009
0.005
0.002
-0.029
-0.001
-0.000
-0.027
0.001
-0.000
-0.029
0.001
-0.000
-0.028
-0.001
0.000
-0.025
-0.000
0.000
-0.025
-0.000
0.000
-0.023
-0.002
-0.000
-0.026
0.002
-0.001
-0.028
0.003
-0.002
-0.031
0.001
-0.001
-0.031
-0.002
0.000
-0.030
0.001
-0.003
-0.025
0.001
-0.001
-0.028
0.003
-0.003
-0.036
0.007
-0.006
-0.039
-0.003
-0.000
-0.031
-0.008
0.007
-0.028
-0.002
0.002
-0.027
-0.001
0.003
-0.025
-0.001
0.001
-0.043
-0.008
0.010
-0.048
0.001
-0.014
-0.025
0.009
-0.012
-0.037
0.001
-0.007
-0.037
-0.000
0.003
-0.023
-0.005
0.004
-0.024
-0.000
0.001
-0.025
0.001
-0.001
-0.028
-0.001
-0.012
-0.015
-0.002
0.011
-0.023
-0.001
0.004
-0.030
-0.001
0.005
-0.028
-0.001
-0.004
-0.024
0.000
-0.001
-0.024
-0.001
-0.005
-0.032
-0.006
-0.007
-0.036
-0.000
0.006
-0.027
0.001
0.009
-0.022
0.002
0.004
-0.024
0.001
0.001
-0.026
-0.002
-0.002
-0.029
-0.002
-0.002
-0.038
0.001
0.000
-0.034
0.004
0.010
-0.027
0.002
0.003
-0.032
-0.000
-0.000
-0.009
-0.006
-0.000
-0.022
-0.002
-0.002
-0.025
-0.000
-0.000
-0.028
-0.001
-0.000
-0.030
-0.000
-0.000
-0.026
0.001
0.001
-0.024
0.001
-0.000
-0.025
0.000
-0.000
-0.030
-0.000
0.000
-0.029
-0.001
0.000
-0.027
-0.001
0.000
-0.009
0.001
-0.007
-0.026
0.000
-0.001
-0.027
0.000
-0.000
-0.029
0.001
-0.000
-0.030
-0.000
0.000
-0.029
-0.000
0.001
-0.026
-0.001
0.000
-0.024
-0.000
-0.000
-0.022
0.002
-0.002
-0.029
0.001
-0.003
-0.031
0.001
-0.001
-0.031
-0.002
0.002
-0.031
-0.002
0.002
-0.025
-0.001
0.001
-0.009
-0.004
0.006
-0.024
0.002
-0.005
-0.032
-0.000
-0.000
-0.028
-0.005
0.010
-0.026
0.000
0.003
-0.036
0.000
-0.002
-0.025
-0.000
0.001
-0.026
0.000
0.001
-0.047
-0.000
0.013
-0.025
-0.001
-0.001
-0.028
-0.001
-0.003
-0.031
-0.001
-0.002
-0.032
0.000
0.001
-0.029
0.001
0.003
-0.025
0.000
0.001
-0.025
0.001
0.001
-0.027
0.003
0.004
-0.026
0.001
0.001
-0.025
0.000
0.000
-0.024
-0.001
-0.000
-0.025
-0.000
-0.000
-0.030
-0.000
-0.000
-0.030
0.002
0.002
-0.027
0.001
0.000
-0.022
0.001
0.001
-0.012
-0.003
-0.005
-0.025
-0.001
-0.000
-0.010
0.005
0.003
-0.022
0.000
0.002
-0.005
-0.008
0.006
-0.029
0.000
-0.000
-0.030
-0.000
0.000
-0.025
-0.000
0.000
-0.024
0.000
-0.000
-0.026
0.000
-0.001
-0.030
0.000
-0.000
-0.030
-0.000
0.000
-0.028
-0.001
0.001
-0.026
-0.000
0.000
-0.025
-0.000
0.000
-0.011
0.002
-0.005
-0.023
0.001
-0.001
-0.026
0.000
-0.002
-0.030
-0.000
-0.002
-0.030
-0.001
0.003
-0.027
0.000
0.001
-0.026
-0.000
0.001
-0.009
0.006
0.007
-0.027
-0.000
-0.000
-0.029
-0.000
-0.001
-0.030
-0.000
0.000
-0.031
0.001
0.002
-0.029
0.000
0.000
-0.024
0.000
0.000
-0.025
-0.000
-0.001
-0.026
0.000
0.001
-0.020
-0.001
-0.002
-0.027
-0.000
-0.000
-0.030
0.000
0.000
-0.028
-0.000
-0.001
-0.027
0.000
-0.001
-0.022
0.000
0.001
-0.010
0.000
0.006
-0.030
-0.000
-0.000
-0.028
-0.000
0.001
-0.022
-0.001
0.003
-0.010
-0.001
-0.002
-0.030
0.000
0.000
-0.023
0.000
0.001
-0.026
0.000
0.000
-0.023
0.001
0.001
-0.022
-0.000
0.001
-0.026
-0.000
0.001
-0.025
-0.001
0.001
-0.026
0.001
-0.000
-0.024
0.000
0.000
-0.026
-0.000
0.000
-0.025
0.001
-0.001
-0.025
0.001
-0.000
-0.027
0.000
0.001
-0.027
0.000
0.000
-0.027
0.000
0.001
-0.026
0.000
0.001
-0.026
0.000
0.001
-0.026
0.000
0.001
-0.026
0.000
0.001
-0.027
0.001
0.001
-0.026
0.001
0.001
-0.028
0.000
0.000
-0.030
0.000
0.000
-0.028
-0.000
0.000
-0.030
0.000
0.000
-0.030
0.000
0.001
-0.030
0.000
0.000
-0.030
0.000
0.001
-0.027
0.000
0.002
-0.029
0.001
0.001
-0.030
0.000
0.001
-0.029
-0.000
0.000
-0.027
-0.000
0.001
-0.029
-0.000
0.000
-0.027
0.000
0.000
-0.027
0.000
0.001
-0.028
-0.000
0.001
-0.029
0.000
0.001
-0.028
-0.000
0.001
-0.030
0.000
-0.000
-0.030
-0.000
0.000
-0.030
-0.000
-0.000
-0.030
0.000
0.000
-0.031
0.000
0.000
-0.030
-0.000
0.001
-0.031
-0.000
0.000
-0.031
-0.000
-0.001
-0.030
0.000
-0.001
-0.028
0.000
-0.000
-0.030
-0.000
-0.000
-0.029
-0.001
-0.001
-0.028
-0.000
-0.001
-0.030
0.000
-0.000
-0.030
-0.000
-0.001
-0.028
-0.000
-0.001
-0.030
-0.000
-0.001
-0.025
0.000
-0.000
-0.023
-0.000
-0.001
-0.024
0.000
-0.000
-0.025
0.000
-0.001
-0.024
-0.000
-0.001
-0.026
-0.000
-0.000
-0.024
0.000
-0.001
-0.025
0.000
-0.001
-0.023
-0.000
-0.001
-0.028
-0.000
0.001
-0.026
-0.000
0.001
-0.028
-0.000
0.001
-0.027
-0.000
0.000
-0.026
-0.000
0.001
-0.026
-0.000
0.001
-0.027
-0.000
0.001
-0.026
0.000
0.000
-0.027
-0.000
0.001
-0.030
-0.000
-0.000
-0.029
-0.000
0.001
-0.030
-0.000
0.001
-0.030
-0.000
0.002
-0.028
-0.000
0.001
-0.030
-0.000
0.001
-0.030
-0.001
0.001
-0.029
-0.000
-0.000
-0.029
0.000
-0.001
-0.030
-0.000
-0.000
-0.030
0.000
-0.000
-0.030
0.000
-0.001
-0.030
0.000
-0.001
-0.026
-0.000
-0.000
-0.027
-0.000
-0.001
-0.028
0.000
-0.000
-0.027
0.000
-0.001
-0.028
-0.000
-0.001
-0.029
0.000
-0.001
-0.027
0.000
-0.001
-0.028
0.000
-0.002
-0.025
0.000
-0.000
-0.026
-0.000
-0.001
-0.025
-0.000
-0.001
-0.025
-0.000
-0.000
-0.026
-0.000
-0.000
-0.026
0.000
-0.001
-0.025
0.000
-0.001
-0.016
0.001
-0.002
-0.023
0.001
-0.001
-0.023
-0.000
-0.001
-0.020
0.001
-0.001
-0.014
-0.002
-0.005
-0.013
0.001
-0.008
-0.025
-0.001
-0.003
-0.024
0.000
-0.004
-0.016
-0.000
-0.005
-0.008
0.005
-0.011
-0.005
-0.003
-0.013
-0.031
0.001
-0.009
-0.016
-0.000
-0.007
-0.028
0.002
-0.007
-0.016
0.001
0.002
-0.010
0.000
0.006
-0.016
0.003
0.004
-0.034
0.005
0.008
-0.034
0.004
0.009
-0.015
0.003
0.003
-0.005
0.010
0.012
-0.027
0.001
0.001
-0.029
0.001
-0.000
-0.026
0.000
0.000
-0.028
0.001
0.001
-0.028
0.001
0.001
-0.027
0.001
0.001
-0.027
-0.000
-0.001
-0.026
-0.000
-0.001
-0.026
-0.000
-0.000
-0.026
-0.000
-0.001
-0.026
-0.000
-0.000
-0.027
-0.000
-0.000
-0.025
-0.000
-0.000
-0.026
-0.001
-0.001
-0.026
-0.000