<?xml version="1.0"?>
<VTKFile type="UnstructuredGrid" version="0.1">
<UnstructuredGrid>
<Piece NumberOfPoints="4" NumberOfCells="2">
<PointData>
<DataArray type="Float32" Name="p_p1">
1.000
2.000
3.000
4.000
</DataArray>
<DataArray type="Float32" Name="u_p1" NumberOfComponents="3">
5.000
6.000
0.000
7.000
8.000
0.000
9.000
10.000
0.000
11.000
12.000
0.000
</DataArray>
</PointData>
<CellData>
<DataArray type="Float32" Name="p_p0">
101.000
102.000
</DataArray>
<DataArray type="Float32" Name="u_p0" NumberOfComponents="3">
103.000
104.000
0.000
105.000
106.000
0.000
</DataArray>
</CellData>
<Points>
<DataArray type="Float32" NumberOfComponents="3">
0.000
0.000
0.000
1.000
0.000
0.000
1.000
1.000
0.000
0.000
1.000
0.000
</DataArray>
</Points>
<Cells>
<DataArray type="Int32" Name="connectivity">
0
1
2
0
2
3
</DataArray>
<DataArray type="Int32" Name="offsets">
3
6
</DataArray>
<DataArray type="UInt8" Name="types">
5
5
</DataArray>
</Cells>
</Piece>
</UnstructuredGrid>
</VTKFile>
